define              =  
integrator          =  steep 
dt                  =  0.001    ; ps !
nsteps              =  50000
comm_mode           =  Linear
comm_grps           =  nofrozen
nstxout             =  100
nstvout             =  100
nstfout             =  100
nstlog              =  1000
nstenergy           =  100
nstxtcout           =  1
nstlist             =  1
ns_type             =  grid
pbc                 =  xyz
periodic_molecules  =  yes
rlist               =  1.0
coulombtype         =  PME
rcoulomb            =  1.0
vdwtype             =  cut-off
rvdw                =  1.0
DispCorr            =  Ener
freezegrps              =  GO_frozen
freezedim               =  Y Y Y
fourierspacing		=  0.12
fourier_nx		=  0
fourier_ny		=  0
fourier_nz		=  0
pme_order		=  4
ewald_rtol		=  1e-5
optimize_fft		=  yes
constraints             =  h-bonds
constraint_algorithm    =  LINCS
;continuation            =  yes
shake_tol               =  0.0001
lincs_order             =  8
lincs_iter              =  1
lincs_warnangle         =  30
;
;       Energy minimizing stuff
;
emtol               =  10.0
emstep              =  0.01
;nstcgsteep          =  10
